#======================================================================================================================================================
#   HLPW-6 Iterative Convergence for Nominal Grid DATA SUBMITTAL FORM for Test Case 1
#   Generated automatically from CFD results
#
#       NOMENCLATURE:
#                  N:   Number of unknowns (grid points for node-centered code, grid cells for cell-centered code)
#               ITER:   Iteration or time step number (ITER1=first recorded time step, ITERn=last time step).
#                       ITERn-ITER1 should be long enough to show any range in variation of final forces and moments.
#                       If no variation exists (i.e., steady-state reached), provide at least the final 25% of the
#                       range of iterations used.
#               TIME:   if run time-accurately, this is the corresponding nondimensional time since you started
#                       the computation (t*U_freestream/MAC)
#                 CL:   Coefficient of lift (total)
#                 CD:   Coefficient of drag (total)
#                 CM:   Coefficient of pitching moment (CMy) about moment reference center (MRC) (total)
#           RESIDM-n:   (Optional) Residual of selected mean-flow equation (n=equation number)
#           RESIDT-n:   (Optional) Residual of selected turbulence equation (n=equation number)
#
#======================================================================================================================================================

TITLE = "016_TC1_TFG_03"

VARIABLES = "ITER" "TIME" "CL" "CD" "CM" "RESIDM-1" "RESIDM-2" "RESIDM-3" "RESIDM-4" "RESIDM-5" "RESIDT-1"

DATASETAUXDATA N_NUMBEROFUNKNOWNS_AOA_10p0  = "30840679"
DATASETAUXDATA N_NUMBEROFUNKNOWNS_AOA_15p0  = "30840679"
DATASETAUXDATA N_NUMBEROFUNKNOWNS_AOA_20p0  = "30840679"
DATASETAUXDATA N_NUMBEROFUNKNOWNS_AOA_25p0  = "30840679"
DATASETAUXDATA N_NUMBEROFUNKNOWNS_AOA_30p0  = "30840679"
DATASETAUXDATA N_NUMBEROFUNKNOWNS_AOA_35p0  = "30840679"
DATASETAUXDATA TIMESTEPPING_METHOD_10p0 = "local-time-stepping"
DATASETAUXDATA TIMESTEPPING_METHOD_15p0 = "local-time-stepping"
DATASETAUXDATA TIMESTEPPING_METHOD_20p0 = "local-time-stepping"
DATASETAUXDATA TIMESTEPPING_METHOD_25p0 = "local-time-stepping"
DATASETAUXDATA TIMESTEPPING_METHOD_30p0 = "local-time-stepping"
DATASETAUXDATA TIMESTEPPING_METHOD_35p0 = "local-time-stepping"

ZONE T="016 TC1 <greek>a</greek> = 10<math>0</math>"
      1   -999    0.0116155147  0.5328721530 -0.0280569937    2.042270e-04  7.576099e-05  3.786346e-05  1.328572e-04  3.681789e-04  6.519948e-06 
      2   -999    0.8491887724  1.4962003673 -0.5667026668    1.798395e-04  7.426854e-05  3.899348e-05  1.361643e-04  3.208690e-04  5.842159e-06 
      3   -999    1.7359692240  2.5228318316 -1.1383603069    1.477650e-04  7.245284e-05  4.061342e-05  1.404079e-04  2.589886e-04  5.145990e-06 
      4   -999    2.5712221082  3.5004534526 -1.6795529010    1.103224e-04  6.935139e-05  4.131230e-05  1.409044e-04  1.909040e-04  4.450139e-06 
      5   -999    3.2083108324  4.2576248981 -2.0959223177    7.653611e-05  6.368699e-05  3.938650e-05  1.321839e-04  1.443236e-04  3.774920e-06 
      6   -999    3.6094505742  4.7413098384 -2.3594644282    6.715294e-05  6.196078e-05  3.883509e-05  1.289781e-04  1.344531e-04  3.575951e-06 
      7   -999    3.9015875026  5.0987092315 -2.5528008184    6.380419e-05  6.032766e-05  3.862677e-05  1.245747e-04  1.429208e-04  3.350453e-06 
      8   -999    3.9947439454  5.2162587834 -2.6152520696    7.090793e-05  6.348139e-05  4.401322e-05  1.254481e-04  1.728575e-04  3.099756e-06 
      9   -999    3.8269618667  5.0072000645 -2.5018813328    8.920238e-05  9.005323e-05  7.467463e-05  1.565375e-04  2.212170e-04  2.828825e-06 
     10   -999    3.4224775146  4.4786540085 -2.2207151335    1.162125e-04  1.659073e-04  1.570353e-04  2.525202e-04  2.827949e-04  2.552921e-06 
     11   -999    2.7488700731  3.5555581963 -1.7388147358    1.068089e-04  2.258979e-04  2.261443e-04  3.275263e-04  2.446367e-04  1.932794e-06 
     12   -999    2.3117409240  2.8791591636 -1.3999842775    1.049684e-04  2.722286e-04  2.803156e-04  3.805624e-04  2.295387e-04  1.394205e-06 
     13   -999    2.0740641650  2.4400403544 -1.1898863490    1.015209e-04  2.917520e-04  3.053114e-04  3.950390e-04  2.175338e-04  1.207953e-06 
     14   -999    1.8346872028  1.9446172204 -0.9514119141    9.312087e-05  2.700957e-04  2.860449e-04  3.513955e-04  2.040645e-04  1.128497e-06 
     15   -999    1.5026853504  1.3388362695 -0.6310694312    9.654216e-05  1.789289e-04  1.869239e-04  2.268464e-04  2.335397e-04  1.110993e-06 
     16   -999    1.0947435681  0.7538725756 -0.2722426574    1.202535e-04  1.328394e-04  1.239002e-04  1.850840e-04  2.966492e-04  1.218343e-06 
     17   -999    0.6148736024  0.1979446140  0.1199432877    1.340974e-04  2.619450e-04  2.669908e-04  3.376845e-04  3.133175e-04  1.422097e-06 
     18   -999    0.2574927020 -0.1282667256  0.3973780302    1.115383e-04  3.328363e-04  3.450640e-04  4.037239e-04  2.418830e-04  1.614357e-06 
     19   -999    0.2197050594 -0.1023256788  0.4172245702    7.366831e-05  2.602797e-04  2.648847e-04  3.040652e-04  1.606561e-04  1.837492e-06 
     20   -999    0.3340505493  0.0552489082  0.3140523716    5.914513e-05  1.741858e-04  1.723395e-04  2.115897e-04  1.414449e-04  2.156356e-06 
     21   -999    0.4874857018  0.2247482200  0.1725711827    4.581414e-05  1.044935e-04  1.173669e-04  1.593869e-04  1.104315e-04  2.499444e-06 
     22   -999    0.6440400053  0.3981235134  0.0217622176    4.206046e-05  9.813521e-05  1.305024e-04  1.769321e-04  9.701391e-05  3.158131e-06 
     23   -999    0.7496402117  0.5200380825 -0.0912463576    3.310241e-05  1.083730e-04  1.555466e-04  2.018902e-04  7.304622e-05  4.231961e-06 
     24   -999    0.7987382794  0.5558429741 -0.1315986619    2.095624e-05  9.727941e-05  1.640578e-04  2.170440e-04  4.711185e-05  5.962810e-06 
     25   -999    0.8575386877  0.5269501173 -0.1278337043    1.250535e-05  8.852092e-05  1.806210e-04  2.459192e-04  3.280158e-05  8.661986e-06 
     26   -999    0.9398652789  0.5016457034 -0.1226790186    1.530713e-05  1.066464e-04  2.306196e-04  2.978536e-04  4.115271e-05  1.112058e-05 
     27   -999    1.0035084805  0.4859576720 -0.1217382549    1.469383e-05  1.248865e-04  2.843385e-04  3.682482e-04  4.096069e-05  1.491225e-05 
     28   -999    1.0337567628  0.4758405151 -0.1175213929    1.581337e-05  1.469376e-04  3.535236e-04  4.655507e-04  4.642975e-05  2.053129e-05 
     29   -999    1.0527328017  0.4669671600 -0.1143806403    1.754549e-05  1.670916e-04  4.114776e-04  5.489770e-04  5.224992e-05  2.559470e-05 
     30   -999    1.0818746359  0.4534107904 -0.1141165109    1.996439e-05  1.931954e-04  4.824189e-04  6.538382e-04  5.999312e-05  3.255473e-05 
     31   -999    1.1116392972  0.4063832740 -0.1154958890    2.116900e-05  2.037500e-04  4.724123e-04  6.704753e-04  6.827441e-05  4.314429e-05 
     32   -999    1.1330377053  0.3594215455 -0.1153625524    2.403575e-05  2.176960e-04  4.164119e-04  6.245651e-04  7.598296e-05  5.261539e-05 
     33   -999    1.1410294776  0.3328491207 -0.1139550592    2.053325e-05  2.081329e-04  3.545573e-04  5.547961e-04  6.629757e-05  5.605712e-05 
     34   -999    1.1498305994  0.2998047996 -0.1116863064    1.718114e-05  2.017951e-04  2.766101e-04  4.662953e-04  5.745846e-05  6.076482e-05 
     35   -999    1.1530589812  0.2732973844 -0.1087107765    1.433244e-05  1.806504e-04  2.056747e-04  3.695667e-04  4.784378e-05  6.351045e-05 
     36   -999    1.1531980886  0.2681188698 -0.1073974630    1.369043e-05  1.822713e-04  2.019299e-04  3.652845e-04  4.623599e-05  6.622482e-05 
     37   -999    1.1526030523  0.2593301243 -0.1050006657    1.317662e-05  1.855579e-04  1.956739e-04  3.579493e-04  4.482544e-05  7.184020e-05 
     38   -999    1.1485697686  0.2496989516 -0.1015893061    1.328947e-05  1.890100e-04  1.869824e-04  3.475785e-04  4.465492e-05  8.185550e-05 
     39   -999    1.1408168374  0.2395452233 -0.0969815466    1.346711e-05  1.908957e-04  1.737702e-04  3.315310e-04  4.418881e-05  1.032646e-04 
     40   -999    1.1285324759  0.2290854919 -0.0905768177    1.324176e-05  1.879341e-04  1.542426e-04  3.056022e-04  4.223337e-05  1.823761e-04 
     41   -999    1.1211845658  0.2176127979 -0.0862593898    1.068214e-05  1.516265e-04  1.125306e-04  2.306168e-04  3.303323e-05  5.649897e-04 
     42   -999    1.1168489771  0.2101125352 -0.0833497010    9.071024e-06  1.297609e-04  8.865842e-05  1.854042e-04  2.750609e-05  1.052262e-03 
     43   -999    1.1097786359  0.1969309977 -0.0783204171    6.699251e-06  9.685780e-05  5.381152e-05  1.131130e-04  1.959030e-05  2.265002e-03 
     44   -999    1.1091941958  0.1940044527 -0.0774956907    6.109587e-06  8.829121e-05  4.748132e-05  9.907643e-05  1.768664e-05  3.004055e-03 
     45   -999    1.1089408272  0.1922945014 -0.0770475133    5.774047e-06  8.343584e-05  4.395899e-05  9.107838e-05  1.660989e-05  3.468708e-03 
     46   -999    1.1077807805  0.1894474223 -0.0753971245    5.531659e-06  8.032361e-05  4.287007e-05  8.540922e-05  1.587072e-05  4.572015e-03 
     47   -999    1.1081852766  0.1874227178 -0.0746930973    5.351174e-06  7.783851e-05  4.264574e-05  8.150092e-05  1.528001e-05  5.971842e-03 
     48   -999    1.1113671181  0.1855826131 -0.0750878476    5.184861e-06  7.496253e-05  4.300644e-05  7.744295e-05  1.469509e-05  8.463608e-04 
     49   -999    1.1190581931  0.1840860782 -0.0772586376    5.040464e-06  7.176487e-05  4.326728e-05  7.242680e-05  1.411812e-05  1.260029e-03 
     50   -999    1.1324753653  0.1831006196 -0.0815829949    4.914314e-06  6.817356e-05  4.157292e-05  6.454483e-05  1.349259e-05  1.886367e-03 
     51   -999    1.1535072555  0.1779761112 -0.0883559775    4.419765e-06  4.285442e-05  2.086566e-05  2.985800e-05  1.063695e-05  2.433341e-03 
     52   -999    1.1765849682  0.1738894982 -0.0952344024    3.694413e-06  2.640409e-05  1.293986e-05  1.851446e-05  8.765439e-06  2.565780e-03 
     53   -999    1.1811036823  0.1730593979 -0.0964135536    3.143495e-06  2.397400e-05  1.257156e-05  1.809526e-05  7.606104e-06  2.474276e-04 
     54   -999    1.1896928847  0.1714313525 -0.0986016971    2.280229e-06  1.943499e-05  1.265935e-05  1.844511e-05  5.254942e-06  2.313259e-04 
     55   -999    1.1945716351  0.1704748544 -0.0998022006    1.937147e-06  1.738680e-05  1.301638e-05  1.900108e-05  4.308800e-06  2.200131e-04 
     56   -999    1.2015231212  0.1701332834 -0.1014846193    1.995776e-06  1.807261e-05  1.801153e-05  2.475615e-05  4.418453e-06  2.306182e-04 
     57   -999    1.2067222688  0.1697518777 -0.1027143626    2.160799e-06  1.925625e-05  2.259073e-05  3.073035e-05  4.883211e-06  2.435788e-04 
     58   -999    1.2120400047  0.1692580775 -0.1039624088    2.383223e-06  2.124583e-05  2.762393e-05  3.770280e-05  5.539996e-06  2.614270e-04 
     59   -999    1.2174393146  0.1686471077 -0.1052552350    2.601414e-06  2.395067e-05  3.176867e-05  4.366816e-05  6.224928e-06  2.828533e-04 
     60   -999    1.2227137797  0.1678819089 -0.1065615703    2.757635e-06  2.718611e-05  3.360606e-05  4.677487e-05  6.834498e-06  3.140132e-04 
     61   -999    1.2282518678  0.1656576022 -0.1081035637    2.670977e-06  2.118861e-05  1.707469e-05  2.557698e-05  6.773307e-06  3.214581e-04 
     62   -999    1.2335145000  0.1637241956 -0.1097552929    1.747021e-06  1.629368e-05  8.414034e-06  1.231121e-05  4.520931e-06  3.941553e-04 
     63   -999    1.2381909968  0.1621342182 -0.1113789712    1.070828e-06  1.097282e-05  4.805494e-06  6.307684e-06  2.808967e-06  3.963250e-04 
     64   -999    1.2413042992  0.1611769292 -0.1126115702    7.114733e-07  7.352374e-06  3.456083e-06  4.319692e-06  1.855911e-06  3.251520e-04 
     65   -999    1.2424454284  0.1608141918 -0.1131281841    5.662437e-07  6.203135e-06  3.037969e-06  3.719407e-06  1.481392e-06  2.917503e-04 
     66   -999    1.2434213911  0.1605445416 -0.1135668544    5.692821e-07  6.686775e-06  3.785293e-06  4.455725e-06  1.463260e-06  3.148936e-04 
     67   -999    1.2444481689  0.1601974928 -0.1140424845    6.389203e-07  7.505512e-06  4.701935e-06  5.382883e-06  1.607753e-06  3.450596e-04 
     68   -999    1.2452497194  0.1597756287 -0.1144410576    7.313222e-07  8.434082e-06  5.307724e-06  5.968152e-06  1.803014e-06  3.703137e-04 
     69   -999    1.2457194216  0.1594600634 -0.1147399338    7.765466e-07  8.962899e-06  5.427826e-06  6.028889e-06  1.892240e-06  3.802107e-04 
     70   -999    1.2458990228  0.1592861487 -0.1148840193    7.843677e-07  9.060801e-06  5.292780e-06  5.832409e-06  1.900519e-06  3.786319e-04 
     71   -999    1.2459628026  0.1592304763 -0.1149425453    7.360607e-07  8.536075e-06  4.853280e-06  5.336839e-06  1.780626e-06  3.580354e-04 
     72   -999    1.2460078795  0.1591914783 -0.1149849368    7.023841e-07  8.172608e-06  4.540839e-06  4.984529e-06  1.697016e-06  3.436265e-04 
     73   -999    1.2461558729  0.1590639768 -0.1151267683    5.993115e-07  7.053839e-06  3.518351e-06  3.833001e-06  1.440836e-06  2.974015e-04 
     74   -999    1.2463593110  0.1589119741 -0.1153121565    4.874917e-07  5.773602e-06  2.467244e-06  2.656809e-06  1.164309e-06  2.430715e-04 
     75   -999    1.2466069213  0.1587465543 -0.1155229682    3.750854e-07  4.405370e-06  1.673492e-06  1.778373e-06  8.862691e-07  1.857208e-04 
     76   -999    1.2468305974  0.1585975519 -0.1156764754    3.740543e-07  4.295112e-06  1.760941e-06  1.834043e-06  8.810121e-07  1.795900e-04 
     77   -999    1.2469471197  0.1584222489 -0.1157641572    3.835303e-07  4.298394e-06  1.974392e-06  2.000329e-06  8.910312e-07  1.730458e-04 
     78   -999    1.2469880018  0.1582150215 -0.1157860005    3.993314e-07  4.387028e-06  2.154411e-06  2.137815e-06  9.170524e-07  1.648444e-04 
     79   -999    1.2469257489  0.1579791502 -0.1157468505    4.049397e-07  4.414358e-06  2.170015e-06  2.118699e-06  9.237455e-07  1.534819e-04 
     80   -999    1.2467647210  0.1577346774 -0.1156548371    3.884951e-07  4.213774e-06  2.005463e-06  1.924077e-06  8.825027e-07  1.372134e-04 
     81   -999    1.2467647210  0.1577346774 -0.1156548371    3.884951e-07  4.213774e-06  2.005463e-06  1.924077e-06  8.825027e-07  1.372134e-04 
     82   -999    1.2467554146  0.1577303986 -0.1156582879    3.741978e-07  4.099294e-06  1.906067e-06  1.824638e-06  8.468443e-07  1.324409e-04 
     83   -999    1.2467452241  0.1577262468 -0.1156710470    3.545277e-07  3.922999e-06  1.758231e-06  1.679126e-06  8.000089e-07  1.251285e-04 
     84   -999    1.2467426272  0.1577244593 -0.1156938972    3.388117e-07  3.760557e-06  1.630101e-06  1.556421e-06  7.654042e-07  1.186660e-04 
     85   -999    1.2467386486  0.1577145623 -0.1157129844    3.184253e-07  3.547973e-06  1.475083e-06  1.410816e-06  7.204667e-07  1.108996e-04 
     86   -999    1.2467620037  0.1576972805 -0.1157086694    3.189611e-07  3.512889e-06  1.453699e-06  1.393123e-06  7.271091e-07  1.095524e-04 
     87   -999    1.2467437741  0.1576670812 -0.1156857171    3.131596e-07  3.464261e-06  1.425386e-06  1.367280e-06  7.131221e-07  1.079763e-04 
     88   -999    1.2467173862  0.1576374754 -0.1156706868    3.069089e-07  3.402731e-06  1.393583e-06  1.336162e-06  6.984198e-07  1.061377e-04 
     89   -999    1.2466887066  0.1576068881 -0.1156597615    3.001414e-07  3.326770e-06  1.362667e-06  1.303205e-06  6.823857e-07  1.039630e-04 
     90   -999    1.2466549931  0.1575723847 -0.1156426236    2.928290e-07  3.235210e-06  1.337299e-06  1.272131e-06  6.641153e-07  1.013121e-04 
     91   -999    1.2466092908  0.1575424423 -0.1156312485    2.297169e-07  2.537939e-06  9.895686e-07  9.314879e-07  5.129165e-07  7.911397e-05 
     92   -999    1.2466129628  0.1575134135 -0.1156264732    1.704531e-07  1.859704e-06  6.891369e-07  6.470675e-07  3.753519e-07  5.783043e-05 
     93   -999    1.2466392939  0.1574903002 -0.1156156872    1.198492e-07  1.280883e-06  4.755102e-07  4.432638e-07  2.588798e-07  3.978229e-05 
     94   -999    1.2466909477  0.1574689493 -0.1155763343    8.254468e-08  8.582942e-07  3.554813e-07  3.327205e-07  1.755237e-07  2.623475e-05 
     95   -999    1.2467568309  0.1574260833 -0.1154823870    5.911601e-08  6.021237e-07  3.031116e-07  3.033183e-07  1.267679e-07  1.711359e-05 
     96   -999    1.2467526547  0.1573290948 -0.1152904198    7.447073e-08  7.009784e-07  4.845769e-07  5.119179e-07  1.614601e-07  1.792089e-05 
     97   -999    1.2466491873  0.1571931092 -0.1150326732    9.613401e-08  8.903434e-07  6.750609e-07  7.662634e-07  2.108671e-07  1.906395e-05 
     98   -999    1.2464716865  0.1570413559 -0.1147529177    1.129775e-07  1.059574e-06  7.852861e-07  9.377119e-07  2.483539e-07  1.917971e-05 
     99   -999    1.2462162030  0.1568913935 -0.1144809253    1.193608e-07  1.143157e-06  7.870539e-07  9.599488e-07  2.610427e-07  1.797690e-05 
    100   -999    1.2458592939  0.1567446216 -0.1142360268    1.149362e-07  1.128581e-06  7.059476e-07  8.478478e-07  2.507625e-07  1.582524e-05 
    101   -999    1.2455980960  0.1566698070 -0.1141088872    5.157879e-08  5.114990e-07  2.566507e-07  2.947891e-07  1.127131e-07  6.723701e-06 
    102   -999    1.2455980960  0.1566698070 -0.1141088872    5.157879e-08  5.114990e-07  2.566507e-07  2.947891e-07  1.127131e-07  6.723701e-06 
    103   -999    1.2455931435  0.1566661464 -0.1141088980    4.668487e-08  4.797161e-07  2.350037e-07  2.681200e-07  1.001758e-07  6.292067e-06 
    104   -999    1.2455827655  0.1566601635 -0.1141075767    4.312815e-08  4.462204e-07  2.141341e-07  2.416785e-07  9.199346e-08  5.844786e-06 
    105   -999    1.2455587115  0.1566544944 -0.1140998173    3.948552e-08  4.087641e-07  1.937874e-07  2.153986e-07  8.394425e-08  5.363873e-06 
    106   -999    1.2455359996  0.1566470666 -0.1140865658    4.016310e-08  4.069398e-07  2.024787e-07  2.211877e-07  8.608619e-08  5.336000e-06 
    107   -999    1.2454955796  0.1566358057 -0.1140671932    4.045699e-08  4.087133e-07  2.180619e-07  2.361715e-07  8.709467e-08  5.370422e-06 
    108   -999    1.2454428685  0.1566201522 -0.1140421017    4.178117e-08  4.188331e-07  2.455741e-07  2.647739e-07  9.059998e-08  5.496578e-06 
    109   -999    1.2453723924  0.1566002851 -0.1140088328    4.441872e-08  4.418356e-07  2.850579e-07  3.078564e-07  9.718724e-08  5.722863e-06 
    110   -999    1.2452832044  0.1565775661 -0.1139678965    4.833759e-08  4.794482e-07  3.319677e-07  3.615003e-07  1.067519e-07  6.033847e-06 
    111   -999    1.2451860405  0.1565624354 -0.1139286080    3.958352e-08  4.083820e-07  2.425083e-07  2.658578e-07  8.608812e-08  4.946959e-06 
    112   -999    1.2451131666  0.1565477418 -0.1138991568    3.313598e-08  3.444210e-07  1.869228e-07  2.045318e-07  7.142907e-08  4.102240e-06 
    113   -999    1.2450545042  0.1565355273 -0.1138770160    2.882194e-08  2.999774e-07  1.575796e-07  1.719929e-07  6.176546e-08  3.542749e-06 
    114   -999    1.2450045630  0.1565247551 -0.1138589369    2.587083e-08  2.691185e-07  1.412179e-07  1.539718e-07  5.525206e-08  3.152579e-06 
    115   -999    1.2449389730  0.1565100400 -0.1138360609    2.309434e-08  2.397415e-07  1.290903e-07  1.409640e-07  4.925891e-08  2.767628e-06 
    116   -999    1.2448545753  0.1564862899 -0.1138042389    2.535486e-08  2.543622e-07  1.646068e-07  1.812748e-07  5.530518e-08  2.839883e-06 
    117   -999    1.2447379250  0.1564596015 -0.1137648105    2.889888e-08  2.883610e-07  2.198006e-07  2.490845e-07  6.423708e-08  3.067597e-06 
    118   -999    1.2445956643  0.1564304022 -0.1137167345    3.391702e-08  3.394121e-07  2.797755e-07  3.251559e-07  7.627125e-08  3.476473e-06 
    119   -999    1.2444223797  0.1563993678 -0.1136572900    3.904116e-08  3.949169e-07  3.265570e-07  3.887823e-07  8.810671e-08  4.047678e-06 
    120   -999    1.2442157561  0.1563679446 -0.1135852204    4.285721e-08  4.398249e-07  3.481700e-07  4.265928e-07  9.665303e-08  4.695405e-06 
    121   -999    1.2439785216  0.1563392070 -0.1134959131    2.454308e-08  2.566554e-07  1.507380e-07  1.893379e-07  5.331477e-08  3.305307e-06 
    122   -999    1.2438037942  0.1563136921 -0.1134204906    1.670077e-08  1.736181e-07  9.951594e-08  1.246203e-07  3.620929e-08  2.457968e-06 
    123   -999    1.2438037942  0.1563136921 -0.1134204906    1.670077e-08  1.736181e-07  9.951594e-08  1.246203e-07  3.620929e-08  2.457968e-06 
    124   -999    1.2437958551  0.1563128682 -0.1134156605    1.618029e-08  1.694329e-07  9.717694e-08  1.216510e-07  3.495541e-08  2.413778e-06 
    125   -999    1.2437855988  0.1563112255 -0.1134112196    1.571658e-08  1.647223e-07  9.470566e-08  1.185120e-07  3.393324e-08  2.362843e-06 
    126   -999    1.2437749782  0.1563081768 -0.1134074615    1.633076e-08  1.653507e-07  9.890616e-08  1.221576e-07  3.560036e-08  2.360113e-06 
    127   -999    1.2437551082  0.1563039890 -0.1133995809    1.641181e-08  1.662738e-07  1.041466e-07  1.277503e-07  3.587367e-08  2.359203e-06 
    128   -999    1.2437317677  0.1563006312 -0.1133888580    1.663226e-08  1.682577e-07  1.123930e-07  1.374795e-07  3.660510e-08  2.363466e-06 
    129   -999    1.2437053930  0.1562969363 -0.1133758185    1.707948e-08  1.722449e-07  1.251083e-07  1.534234e-07  3.798961e-08  2.379715e-06 
    130   -999    1.2436740280  0.1562916942 -0.1133599913    1.783487e-08  1.795321e-07  1.429443e-07  1.766528e-07  4.021638e-08  2.419324e-06 
    131   -999    1.2436351385  0.1562865797 -0.1133407020    1.663587e-08  1.755747e-07  1.300656e-07  1.664758e-07  3.734945e-08  2.407196e-06 
    132   -999    1.2435929511  0.1562782448 -0.1133171874    1.560878e-08  1.646589e-07  1.106635e-07  1.430490e-07  3.483376e-08  2.350021e-06 
    133   -999    1.2435405701  0.1562666453 -0.1132860043    1.413561e-08  1.484344e-07  9.320023e-08  1.202811e-07  3.131875e-08  2.241159e-06 
    134   -999    1.2434761533  0.1562522761 -0.1132458688    1.262617e-08  1.316511e-07  8.159701e-08  1.052217e-07  2.786936e-08  2.095088e-06 
    135   -999    1.2433978052  0.1562353682 -0.1131968641    1.135056e-08  1.175373e-07  7.441222e-08  9.648870e-08  2.505259e-08  1.931855e-06 
    136   -999    1.2433366844  0.1562212717 -0.1131604414    1.338560e-08  1.338830e-07  1.037592e-07  1.305384e-07  3.061447e-08  2.017649e-06 
    137   -999    1.2432604586  0.1562062602 -0.1131177030    1.637271e-08  1.667874e-07  1.418633e-07  1.794564e-07  3.845476e-08  2.237843e-06 
    138   -999    1.2431700544  0.1561886541 -0.1130706970    2.028039e-08  2.097492e-07  1.759370e-07  2.256677e-07  4.792638e-08  2.635208e-06 
    139   -999    1.2430611244  0.1561680481 -0.1130202777    2.410674e-08  2.505099e-07  1.970632e-07  2.573344e-07  5.631378e-08  3.159303e-06 
    140   -999    1.2429306172  0.1561447215 -0.1129680842    2.677586e-08  2.775610e-07  2.027457e-07  2.697192e-07  6.125537e-08  3.663099e-06 
    141   -999    1.2428254497  0.1561269214 -0.1129320930    1.646820e-08  1.678091e-07  9.686918e-08  1.342767e-07  3.505989e-08  2.823105e-06 
    142   -999    1.2428043365  0.1561230536 -0.1129259373    1.519061e-08  1.543186e-07  8.871933e-08  1.224370e-07  3.218258e-08  2.637311e-06 
    143   -999    1.2427914422  0.1561207334 -0.1129222112    1.443493e-08  1.463234e-07  8.393650e-08  1.154710e-07  3.048484e-08  2.525561e-06 
    144   -999    1.2427766854  0.1561180255 -0.1129179312    1.357343e-08  1.372139e-07  7.846929e-08  1.075022e-07  2.854386e-08  2.398261e-06 
    145   -999    1.2427607620  0.1561151497 -0.1129133502    1.267390e-08  1.277138e-07  7.285869e-08  9.929249e-08  2.652287e-08  2.262780e-06 
    146   -999    1.2427277069  0.1561083266 -0.1129037790    1.314519e-08  1.292044e-07  8.210787e-08  1.077606e-07  2.799318e-08  2.246066e-06 
    147   -999    1.2426858107  0.1561018231 -0.1128922023    1.365909e-08  1.353444e-07  9.784518e-08  1.259757e-07  2.970469e-08  2.232917e-06 
    148   -999    1.2426535126  0.1560970809 -0.1128836657    1.426928e-08  1.426958e-07  1.115402e-07  1.428209e-07  3.155324e-08  2.231860e-06 
    149   -999    1.2426159057  0.1560916538 -0.1128741036    1.514764e-08  1.533252e-07  1.263845e-07  1.619306e-07  3.399416e-08  2.250361e-06 
    150   -999    1.2425726812  0.1560855242 -0.1128633162    1.621143e-08  1.661079e-07  1.391137e-07  1.793378e-07  3.669295e-08  2.305356e-06 
    151   -999    1.2425224467  0.1560791672 -0.1128513381    1.224781e-08  1.260128e-07  8.272089e-08  1.119548e-07  2.610761e-08  2.016534e-06 
    152   -999    1.2424629258  0.1560701285 -0.1128382055    9.012230e-09  9.038111e-08  5.337487e-08  7.199687e-08  1.860867e-08  1.608193e-06 
    153   -999    1.2423944266  0.1560596271 -0.1128232637    6.880997e-09  6.786515e-08  4.166823e-08  5.512759e-08  1.416497e-08  1.220381e-06 
    154   -999    1.2423224508  0.1560487871 -0.1128063220    5.881786e-09  5.703127e-08  3.767432e-08  4.936445e-08  1.236189e-08  9.754808e-07 
    155   -999    1.2422531020  0.1560421755 -0.1127868064    5.701353e-09  5.332239e-08  3.698452e-08  4.821400e-08  1.250314e-08  8.716222e-07 
    156   -999    1.2421951026  0.1560474233 -0.1127620294    1.024572e-08  1.003031e-07  8.053068e-08  1.041916e-07  2.398530e-08  1.342764e-06 
    157   -999    1.2421626247  0.1560658548 -0.1127274740    1.523122e-08  1.528240e-07  1.126070e-07  1.501912e-07  3.558774e-08  1.991295e-06 
    158   -999    1.2421619005  0.1560798310 -0.1126803598    1.934849e-08  1.937091e-07  1.277616e-07  1.784260e-07  4.461014e-08  2.423193e-06 
    159   -999    1.2421627241  0.1560813641 -0.1126483555    2.183421e-08  2.157484e-07  1.297415e-07  1.872585e-07  4.995112e-08  2.533458e-06 
    160   -999    1.2421405222  0.1560744743 -0.1126205144    2.298081e-08  2.329322e-07  1.237020e-07  1.808998e-07  5.168210e-08  2.421978e-06 
    161   -999    1.2421054691  0.1560640163 -0.1126057264    1.083534e-08  1.112904e-07  4.707133e-08  6.890300e-08  2.371320e-08  1.071275e-06 
    162   -999    1.2420245657  0.1560491505 -0.1125874404    7.269779e-09  7.449372e-08  3.152782e-08  4.279598e-08  1.628835e-08  6.036750e-07 
    163   -999    1.2419460354  0.1560386770 -0.1125701051    6.153703e-09  6.230729e-08  2.842691e-08  3.757940e-08  1.393507e-08  5.000657e-07 
    164   -999    1.2418474692  0.1560320110 -0.1125396671    6.142037e-09  4.938435e-08  2.577618e-08  3.385077e-08  1.463963e-08  4.545370e-07 
    165   -999    1.2417779054  0.1560266499 -0.1125072222    6.647686e-09  3.885673e-08  2.286949e-08  2.999984e-08  1.643224e-08  4.074500e-07 
    166   -999    1.2417338556  0.1560199977 -0.1124822218    6.931562e-09  6.073253e-08  4.445060e-08  5.937984e-08  1.657561e-08  5.613822e-07 
    167   -999    1.2416792859  0.1560084922 -0.1124555187    1.376357e-08  7.731817e-08  5.755811e-08  7.391446e-08  3.508351e-08  7.466380e-07 
    168   -999    1.2416115602  0.1559958032 -0.1124346437    1.583091e-08  7.779809e-08  5.499400e-08  7.096032e-08  4.112501e-08  8.425253e-07 
    169   -999    1.2415604506  0.1559848960 -0.1124260257    8.190010e-09  7.130004e-08  4.724431e-08  6.281581e-08  1.938664e-08  8.358431e-07 
    170   -999    1.2415119142  0.1559779043 -0.1124225261    6.000806e-09  6.195099e-08  3.960182e-08  5.238615e-08  1.374070e-08  7.497685e-07 
    171   -999    1.2414816708  0.1559813706 -0.1124220443    4.020960e-09  1.939897e-08  1.139779e-08  1.395514e-08  1.004485e-08  2.602615e-07 
    172   -999    1.2414779152  0.1559870756 -0.1124169976    4.914949e-09  1.404882e-08  1.003297e-08  1.051417e-08  1.345870e-08  1.676787e-07 
    173   -999    1.2414779574  0.1559875341 -0.1124162003    5.878969e-09  1.373440e-08  1.011934e-08  1.051347e-08  1.660663e-08  1.592730e-07 
    174   -999    1.2414777698  0.1559879242 -0.1124154642    5.068517e-09  1.513603e-08  1.359848e-08  1.031244e-08  1.672270e-08  1.509688e-07 
    175   -999    1.2414777547  0.1559892388 -0.1124132123    3.714203e-09  1.374254e-08  1.047622e-08  9.827193e-09  1.293650e-08  1.357135e-07 
    176   -999    1.2414779007  0.1559905250 -0.1124106530    2.668997e-09  1.449998e-08  1.019700e-08  1.212295e-08  7.894166e-09  1.461722e-07 
    177   -999    1.2414780885  0.1559919420 -0.1124068584    2.033861e-09  1.809225e-08  1.244674e-08  1.630496e-08  5.349657e-09  1.676900e-07 
    178   -999    1.2414771392  0.1559921679 -0.1124023259    2.149248e-09  2.276865e-08  1.500697e-08  2.019270e-08  5.176651e-09  1.966494e-07 
    179   -999    1.2414729085  0.1559909177 -0.1123973760    2.412681e-09  2.619837e-08  1.582564e-08  2.147815e-08  5.816606e-09  2.171938e-07 
    180   -999    1.2414618767  0.1559879333 -0.1123932024    2.515298e-09  2.722070e-08  1.497956e-08  1.949181e-08  5.900786e-09  2.145341e-07 
    181   -999    1.2414393251  0.1559829120 -0.1123924200    1.128214e-09  1.107802e-08  5.507110e-09  6.702176e-09  2.564012e-09  8.766483e-08 
    182   -999    1.2414141203  0.1559804516 -0.1123950881    9.348867e-10  6.566896e-09  4.179159e-09  5.215479e-09  2.281649e-09  4.223313e-08 
    183   -999    1.2414022527  0.1559835207 -0.1123963399    7.012830e-10  5.718468e-09  3.577176e-09  4.250440e-09  1.705779e-09  3.734255e-08 
    184   -999    1.2413999945  0.1559901059 -0.1123920165    6.613838e-10  5.490022e-09  3.137576e-09  3.845816e-09  1.614831e-09  3.827850e-08 
    185   -999    1.2414014538  0.1559926491 -0.1123852966    5.300042e-10  5.333135e-09  2.789347e-09  3.584607e-09  1.258175e-09  3.190903e-08 
    186   -999    1.2413967389  0.1559911783 -0.1123787414    9.814854e-10  1.109986e-08  5.912162e-09  6.335411e-09  2.341972e-09  5.164527e-08 
    187   -999    1.2413815470  0.1559874105 -0.1123753774    1.450743e-09  1.632007e-08  8.257786e-09  9.213853e-09  3.380930e-09  8.981406e-08 
    188   -999    1.2413625186  0.1559857021 -0.1123761289    1.869241e-09  2.055327e-08  9.663867e-09  1.255468e-08  4.296033e-09  1.325880e-07 