#======================================================================================================================================================
#   HLPW-6 Iterative Convergence for Nominal Grid DATA SUBMITTAL FORM for Test Case 1
#   Generated automatically from CFD results
#
#       NOMENCLATURE:
#                  N:   Number of unknowns (grid points for node-centered code, grid cells for cell-centered code)
#               ITER:   Iteration or time step number (ITER1=first recorded time step, ITERn=last time step).
#                       ITERn-ITER1 should be long enough to show any range in variation of final forces and moments.
#                       If no variation exists (i.e., steady-state reached), provide at least the final 25% of the
#                       range of iterations used.
#               TIME:   if run time-accurately, this is the corresponding nondimensional time since you started
#                       the computation (t*U_freestream/MAC)
#                 CL:   Coefficient of lift (total)
#                 CD:   Coefficient of drag (total)
#                 CM:   Coefficient of pitching moment (CMy) about moment reference center (MRC) (total)
#           RESIDM-n:   (Optional) Residual of selected mean-flow equation (n=equation number)
#           RESIDT-n:   (Optional) Residual of selected turbulence equation (n=equation number)
#
#======================================================================================================================================================

TITLE = "XXX_TC1_TFG_01"

VARIABLES = "ITER" "TIME" "CL" "CD" "CM" "RESIDM-1" "RESIDM-2" "RESIDM-3" "RESIDM-4" "RESIDM-5" "RESIDT-1"

DATASETAUXDATA N_NUMBEROFUNKNOWNS_AOA_10p0  = "30840679"
DATASETAUXDATA N_NUMBEROFUNKNOWNS_AOA_15p0  = "30840679"
DATASETAUXDATA N_NUMBEROFUNKNOWNS_AOA_20p0  = "30840679"
DATASETAUXDATA N_NUMBEROFUNKNOWNS_AOA_25p0  = "30840679"
DATASETAUXDATA N_NUMBEROFUNKNOWNS_AOA_30p0  = "30840679"
DATASETAUXDATA N_NUMBEROFUNKNOWNS_AOA_35p0  = "30840679"
DATASETAUXDATA TIMESTEPPING_METHOD_10p0 = "local-time-stepping"
DATASETAUXDATA TIMESTEPPING_METHOD_15p0 = "local-time-stepping"
DATASETAUXDATA TIMESTEPPING_METHOD_20p0 = "local-time-stepping"
DATASETAUXDATA TIMESTEPPING_METHOD_25p0 = "local-time-stepping"
DATASETAUXDATA TIMESTEPPING_METHOD_30p0 = "local-time-stepping"
DATASETAUXDATA TIMESTEPPING_METHOD_35p0 = "local-time-stepping"

ZONE T="XXX TC1 <greek>a</greek> = 10<math>0</math>"
      1   -999    0.0116155147  0.5328721530 -0.0280569937    2.042270e-04  7.322677e-03  3.786346e-05  1.399734e-03  4.345353e-04  1.169251e-04 
      2   -999    0.5230694883  0.9258286030 -0.3494907228    9.931568e-05  3.877162e-03  1.223811e-05  7.150842e-04  3.566453e-04  6.048444e-05 
      3   -999    0.8889367917  1.2216322785 -0.5811522815    6.929291e-05  1.840384e-03  5.771397e-06  3.264861e-04  2.520761e-04  2.826986e-05 
      4   -999    1.1547719702  1.4567148388 -0.7509492029    6.011863e-05  7.818196e-04  7.049139e-06  1.356055e-04  1.643875e-04  1.188350e-05 
      5   -999    1.3623533839  1.6609878710 -0.8845332816    5.385097e-05  3.095830e-04  8.336697e-06  6.024219e-05  1.246051e-04  4.667379e-06 
      6   -999    1.5849298024  1.9140860113 -1.0285426706    5.224823e-05  2.198063e-04  1.172215e-05  5.224914e-05  1.203707e-04  3.293876e-06 
      7   -999    1.7773518613  2.1325230101 -1.1517315738    5.655840e-05  1.510648e-04  2.006045e-05  5.889068e-05  1.331328e-04  2.228453e-06 
      8   -999    1.9294284914  2.2999499696 -1.2455393431    7.035462e-05  1.090832e-04  3.947611e-05  8.728537e-05  1.698631e-04  1.479691e-06 
      9   -999    2.0360170914  2.4001238071 -1.3029626757    9.398647e-05  1.061610e-04  7.641017e-05  1.392397e-04  2.293012e-04  1.022316e-06 
     10   -999    2.0956863674  2.4133876873 -1.3171234271    1.198105e-04  1.406436e-04  1.294565e-04  2.063099e-04  2.915608e-04  8.024139e-07 
     11   -999    2.0846097191  2.2848825964 -1.2636035354    1.144403e-04  1.523957e-04  1.463420e-04  2.269243e-04  2.741168e-04  6.826777e-07 
     12   -999    2.0183848568  2.0356721845 -1.1499069744    9.342806e-05  1.420543e-04  1.366223e-04  2.074875e-04  2.208686e-04  6.266783e-07 
     13   -999    1.8634835666  1.6666302770 -0.9633923948    6.346574e-05  1.009759e-04  9.111566e-05  1.481766e-04  1.513730e-04  5.521636e-07 
     14   -999    1.6288008917  1.2488318767 -0.7298203423    4.890290e-05  6.781285e-05  5.448828e-05  9.966529e-05  1.209074e-04  4.934602e-07 
     15   -999    1.3821038054  0.8910922385 -0.5103191297    3.765176e-05  6.573345e-05  5.559927e-05  8.279449e-05  9.221979e-05  4.474730e-07 
     16   -999    1.1998736417  0.6671143658 -0.3618809085    2.112947e-05  6.098708e-05  4.984499e-05  6.471043e-05  5.188422e-05  3.850530e-07 
     17   -999    1.1019050440  0.5758208229 -0.2973765242    1.202837e-05  4.350024e-05  2.760345e-05  3.421732e-05  3.097823e-05  3.068867e-07 
     18   -999    1.0648255449  0.5639746137 -0.2908804343    1.551123e-05  3.805877e-05  2.720834e-05  3.112899e-05  3.729001e-05  2.403676e-07 
     19   -999    1.0522259312  0.5710038059 -0.3023158221    1.565400e-05  3.667483e-05  3.046293e-05  3.393825e-05  3.607324e-05  1.850935e-07 
     20   -999    1.0419262783  0.5695955189 -0.3087514386    1.363479e-05  3.400243e-05  2.985293e-05  3.306759e-05  3.080541e-05  1.372611e-07 
     21   -999    1.0243238899  0.5586067480 -0.3054473470    1.202468e-05  3.216818e-05  2.993694e-05  3.364670e-05  2.723626e-05  1.014990e-07 
     22   -999    0.9991141436  0.5418273035 -0.2951231046    1.535836e-05  4.371677e-05  4.225991e-05  4.749545e-05  3.560281e-05  1.046574e-07 
     23   -999    0.9690923354  0.5202089914 -0.2804975378    2.190440e-05  6.574016e-05  6.347936e-05  7.118527e-05  5.128084e-05  1.550068e-07 
     24   -999    0.9332118896  0.4911926484 -0.2610213743    3.173251e-05  9.983642e-05  9.588355e-05  1.070997e-04  7.448302e-05  2.429121e-07 
     25   -999    0.8868908744  0.4502158132 -0.2338896490    4.440310e-05  1.483490e-04  1.421043e-04  1.577247e-04  1.042704e-04  3.674847e-07 
     26   -999    0.8256581410  0.3920667867 -0.1959973308    5.763567e-05  2.123124e-04  2.035322e-04  2.231732e-04  1.356257e-04  5.675664e-07 
     27   -999    0.7507844244  0.3132873035 -0.1460592791    6.626063e-05  2.790327e-04  2.691525e-04  2.879331e-04  1.574322e-04  1.105998e-06 
     28   -999    0.6846544798  0.2205686162 -0.0899956860    6.448478e-05  3.287511e-04  3.219875e-04  3.295746e-04  1.579134e-04  3.398511e-06 
     29   -999    0.6903651858  0.1426915367 -0.0481354823    4.625895e-05  3.435377e-04  3.349655e-04  4.004068e-04  1.147122e-04  1.364856e-05 
     30   -999    0.7883322433  0.1188445410 -0.0419899897    6.557472e-05  3.205618e-04  3.573762e-04  5.281985e-04  1.591956e-04  4.256383e-05 
     31   -999    0.7883322433  0.1188445410 -0.0419899897    6.557472e-05  3.205618e-04  3.573762e-04  5.281985e-04  1.591956e-04  4.256383e-05 
     32   -999    0.8065894186  0.1172746884 -0.0454169473    3.652344e-05  3.181303e-04  3.125073e-04  4.946790e-04  8.636110e-05  5.259195e-05 
     33   -999    0.8208620896  0.1182054918 -0.0492372390    3.063248e-05  2.833524e-04  2.470262e-04  4.194282e-04  7.268339e-05  6.098874e-05 
     34   -999    0.8359900601  0.1181448128 -0.0515161862    2.255882e-05  2.242026e-04  1.723836e-04  3.142168e-04  5.321823e-05  6.658496e-05 
     35   -999    0.8491597579  0.1190414851 -0.0541515002    1.518813e-05  1.616324e-04  1.084225e-04  2.066622e-04  3.467242e-05  7.029952e-05 
     36   -999    0.8545303764  0.1211078439 -0.0560324885    1.469296e-05  1.601508e-04  9.980026e-05  1.879324e-04  3.287862e-05  8.854343e-05 
     37   -999    0.8422162493  0.1228957790 -0.0544059550    1.445546e-05  1.585401e-04  8.926859e-05  1.659621e-04  3.137953e-05  1.450755e-04 
     38   -999    0.8007173893  0.1212560803 -0.0403534785    1.407560e-05  1.507229e-04  7.317244e-05  1.387546e-04  2.975620e-05  4.026574e-04 
     39   -999    0.7621144212  0.1153357724 -0.0199858803    1.343727e-05  1.335113e-04  6.146419e-05  1.126020e-04  2.856751e-05  2.269444e-03 
     40   -999    0.7625586672  0.1152065200 -0.0191698976    1.313554e-05  1.309823e-04  6.062091e-05  1.100273e-04  2.955695e-05  2.854987e-03 
     41   -999    0.7631747204  0.1150405809 -0.0184240651    1.191889e-05  1.192721e-04  5.514803e-05  9.958366e-05  2.648629e-05  3.258785e-03 
     42   -999    0.7631747204  0.1150405809 -0.0184240651    1.191889e-05  1.192721e-04  5.514803e-05  9.958366e-05  2.648629e-05  3.258785e-03 
     43   -999    0.7626734984  0.1148503945 -0.0178981621    1.133220e-05  1.166743e-04  5.344290e-05  9.572791e-05  2.414580e-05  3.398093e-03 
     44   -999    0.7619250403  0.1146133532 -0.0172707056    1.101195e-05  1.137297e-04  5.174555e-05  9.117475e-05  2.275830e-05  3.586444e-03 
     45   -999    0.7605039786  0.1144095689 -0.0166857522    1.077131e-05  1.101411e-04  5.001487e-05  8.605809e-05  2.209179e-05  3.811577e-03 
     46   -999    0.7584917645  0.1143174548 -0.0160395778    1.111261e-05  1.099345e-04  5.079881e-05  8.592166e-05  2.304266e-05  3.960485e-03 
     47   -999    0.7564018958  0.1141872685 -0.0150595564    1.101599e-05  1.095429e-04  5.157628e-05  8.578443e-05  2.280524e-05  4.169468e-03 
     48   -999    0.7550924979  0.1139222422 -0.0137691381    1.091491e-05  1.090428e-04  5.250313e-05  8.573347e-05  2.257508e-05  4.475058e-03 
     49   -999    0.7549131251  0.1135933440 -0.0123895282    1.085715e-05  1.084799e-04  5.379845e-05  8.598135e-05  2.248731e-05  4.942194e-03 
     50   -999    0.7564286553  0.1134032460 -0.0113461380    1.081974e-05  1.078957e-04  5.561224e-05  8.674424e-05  2.248596e-05  5.684836e-03 
     51   -999    0.7618633845  0.1135503827 -0.0113845521    9.312466e-06  9.428826e-05  4.901820e-05  7.408365e-05  1.927006e-05  7.374672e-03 
     52   -999    0.7750048565  0.1149408058 -0.0143982664    8.015590e-06  8.063345e-05  4.113881e-05  6.158808e-05  1.652540e-05  9.534350e-04 
     53   -999    0.7961611416  0.1173485906 -0.0203759130    6.724485e-06  6.669570e-05  3.115414e-05  4.775000e-05  1.369550e-05  1.264322e-03 
     54   -999    0.8205796827  0.1194822194 -0.0272935940    5.377328e-06  5.226691e-05  2.046283e-05  3.299555e-05  1.081498e-05  1.725847e-03 
     55   -999    0.8205796827  0.1194822194 -0.0272935940    5.377328e-06  5.226691e-05  2.046283e-05  3.299555e-05  1.081498e-05  1.725847e-03 
     56   -999    0.8234717789  0.1197061342 -0.0280525330    5.417749e-06  5.227987e-05  2.091804e-05  3.317518e-05  1.085926e-05  1.762308e-03 
     57   -999    0.8269299156  0.1199430556 -0.0290321766    5.396604e-06  5.224387e-05  2.135548e-05  3.333496e-05  1.076076e-05  1.814263e-03 
     58   -999    0.8308491018  0.1202086391 -0.0302098806    5.347603e-06  5.216347e-05  2.180177e-05  3.351967e-05  1.067079e-05  1.890457e-03 
     59   -999    0.8353346687  0.1204957631 -0.0314734439    5.301852e-06  5.208620e-05  2.261697e-05  3.405308e-05  1.063337e-05  2.004874e-03 
     60   -999    0.8404358694  0.1207548719 -0.0327179073    5.262804e-06  5.203639e-05  2.415501e-05  3.538862e-05  1.065684e-05  2.178650e-03 
     61   -999    0.8459756684  0.1208423514 -0.0338053978    4.667845e-06  4.762301e-05  2.265118e-05  3.418452e-05  9.418716e-06  2.547888e-03 
     62   -999    0.8520426000  0.1209456082 -0.0349664117    4.203703e-06  4.294495e-05  2.439212e-05  3.610097e-05  8.661347e-06  2.942876e-03 
     63   -999    0.8587618034  0.1211333265 -0.0362637376    3.766375e-06  3.821261e-05  2.696098e-05  3.953121e-05  7.946016e-06  3.357219e-04 
     64   -999    0.8661900050  0.1214324430 -0.0376769212    3.461415e-06  3.393545e-05  2.829061e-05  4.196655e-05  7.405994e-06  3.828177e-04 
     65   -999    0.8747582819  0.1218482431 -0.0392578199    3.406575e-06  3.051338e-05  2.700529e-05  4.111251e-05  7.201104e-06  4.395949e-04 
     66   -999    0.8849152839  0.1225150515 -0.0410268350    4.073815e-06  3.459657e-05  3.256642e-05  4.793127e-05  8.348793e-06  5.285005e-04 
     67   -999    0.8967927526  0.1232155148 -0.0426185620    5.333745e-06  4.354481e-05  3.925092e-05  5.704269e-05  1.061251e-05  6.636434e-04 
     68   -999    0.9108010627  0.1239752273 -0.0439042588    6.704089e-06  5.605766e-05  4.489398e-05  6.553404e-05  1.338585e-05  7.848671e-04 
     69   -999    0.9275389760  0.1248555709 -0.0449063209    7.395556e-06  6.610050e-05  4.685135e-05  7.008463e-05  1.529939e-05  8.248803e-04 
     70   -999    0.9479127370  0.1259108288 -0.0461144351    7.194776e-06  6.902595e-05  4.508404e-05  6.952533e-05  1.558231e-05  7.692003e-04 
     71   -999    0.9479127370  0.1259108288 -0.0461144351    7.194776e-06  6.902595e-05  4.508404e-05  6.952533e-05  1.558231e-05  7.692003e-04 
     72   -999    0.9505452682  0.1260476235 -0.0462893500    6.427766e-06  6.606295e-05  3.912323e-05  6.237673e-05  1.383704e-05  7.070144e-04 
     73   -999    0.9535226528  0.1261873651 -0.0465984518    5.832108e-06  6.072434e-05  3.237772e-05  5.333065e-05  1.254015e-05  6.246382e-04 
     74   -999    0.9575872637  0.1264082896 -0.0469678417    5.055593e-06  5.284160e-05  2.548249e-05  4.300418e-05  1.074636e-05  5.290608e-04 
     75   -999    0.9627766143  0.1266815902 -0.0474548803    4.179186e-06  4.316800e-05  1.938386e-05  3.289804e-05  8.671455e-06  4.300600e-04 
     76   -999    0.9691871770  0.1271009104 -0.0481800240    4.094231e-06  4.155755e-05  1.959819e-05  3.198584e-05  8.465343e-06  4.131464e-04 
     77   -999    0.9742250224  0.1274238806 -0.0487429948    3.996942e-06  4.039117e-05  2.035170e-05  3.201778e-05  8.210120e-06  4.019994e-04 
     78   -999    0.9804218343  0.1278229231 -0.0494155557    3.910456e-06  3.915153e-05  2.200507e-05  3.326099e-05  7.992461e-06  3.906687e-04 
     79   -999    0.9880675038  0.1283257802 -0.0502434769    3.835612e-06  3.801434e-05  2.457439e-05  3.611565e-05  7.832010e-06  3.788958e-04 
     80   -999    0.9940879795  0.1287348264 -0.0509213220    3.795489e-06  3.732174e-05  2.663417e-05  3.878445e-05  7.728599e-06  3.694286e-04 
     81   -999    1.0015583754  0.1291420978 -0.0517424271    2.987386e-06  2.872864e-05  2.038348e-05  3.177532e-05  5.856157e-06  2.811616e-04 
     82   -999    1.0106380529  0.1296574216 -0.0528759834    2.285721e-06  2.113800e-05  1.479190e-05  2.408744e-05  4.269955e-06  1.977547e-04 
     83   -999    1.0213537371  0.1302792006 -0.0543058481    1.709446e-06  1.537281e-05  1.129545e-05  1.831147e-05  3.080401e-06  1.292984e-04 
     84   -999    1.0339418238  0.1310686664 -0.0561153008    1.299180e-06  1.183415e-05  9.550814e-06  1.498754e-05  2.377116e-06  8.010114e-05 
     85   -999    1.0486987363  0.1320916652 -0.0584492216    1.057508e-06  1.005171e-05  8.586522e-06  1.312551e-05  2.065222e-06  5.264576e-05 
     86   -999    1.0653693615  0.1335288572 -0.0613703179    1.411327e-06  1.464573e-05  1.551474e-05  2.191868e-05  3.012983e-06  6.354461e-05 
     87   -999    1.0841669946  0.1352476175 -0.0649161555    1.946190e-06  2.070677e-05  2.090205e-05  3.022428e-05  4.330901e-06  9.382944e-05 
     88   -999    1.0978782408  0.1366188178 -0.0677938725    2.243675e-06  2.446962e-05  2.287858e-05  3.386174e-05  5.001053e-06  1.152460e-04 
     89   -999    1.1132954494  0.1382291004 -0.0711686318    2.523645e-06  2.727875e-05  2.298193e-05  3.475354e-05  5.675070e-06  1.299583e-04 
     90   -999    1.1245704880  0.1394974697 -0.0738557361    2.577495e-06  2.852132e-05  2.226012e-05  3.393844e-05  5.779757e-06  1.307298e-04 
     91   -999    1.1377411944  0.1408778664 -0.0771752934    1.766339e-06  1.502673e-05  9.004788e-06  1.412951e-05  4.052941e-06  6.921257e-05 
     92   -999    1.1523911476  0.1426155356 -0.0811368875    1.008175e-06  8.113137e-06  5.142964e-06  7.451512e-06  2.359381e-06  4.822020e-05 
     93   -999    1.1523911476  0.1426155356 -0.0811368875    1.008175e-06  8.113137e-06  5.142964e-06  7.451512e-06  2.359381e-06  4.822020e-05 
     94   -999    1.1536224126  0.1427699541 -0.0815553005    6.800458e-07  7.610471e-06  4.906421e-06  7.040468e-06  1.470829e-06  5.022248e-05 
     95   -999    1.1545877118  0.1429170306 -0.0819116354    6.399092e-07  7.263238e-06  4.772381e-06  6.778353e-06  1.380330e-06  5.267557e-05 
     96   -999    1.1557204007  0.1430893810 -0.0822743275    6.677147e-07  7.365713e-06  5.175355e-06  7.104944e-06  1.468392e-06  5.559687e-05 
     97   -999    1.1570398785  0.1432681299 -0.0826218883    6.742233e-07  7.549820e-06  5.739354e-06  7.659346e-06  1.496982e-06  6.067726e-05 
     98   -999    1.1586273774  0.1434793953 -0.0830154705    6.970695e-07  7.897135e-06  6.596644e-06  8.610090e-06  1.573910e-06  6.858688e-05 
     99   -999    1.1605875999  0.1437520190 -0.0835163246    7.387684e-07  8.477382e-06  7.761570e-06  1.002352e-05  1.701947e-06  7.935922e-05 
    100   -999    1.1629987029  0.1440959443 -0.0841431333    8.008863e-07  9.335488e-06  9.129930e-06  1.179767e-05  1.882951e-06  9.231199e-05 
    101   -999    1.1659937941  0.1444969183 -0.0849432030    7.049548e-07  8.475222e-06  7.116409e-06  9.780892e-06  1.623890e-06  9.670563e-05 
    102   -999    1.1696561683  0.1449932191 -0.0859932738    5.934757e-07  7.009532e-06  5.223818e-06  7.406856e-06  1.339376e-06  9.325100e-05 
    103   -999    1.1739755794  0.1455877037 -0.0872813770    4.755003e-07  5.528865e-06  4.056780e-06  5.724486e-06  1.056799e-06  8.484546e-05 
    104   -999    1.1789433294  0.1462869833 -0.0887777558    3.781339e-07  4.375135e-06  3.449920e-06  4.789311e-06  8.427369e-07  7.526105e-05 
    105   -999    1.1845418414  0.1470945398 -0.0904772072    3.073279e-07  3.574060e-06  3.054000e-06  4.193076e-06  7.017710e-07  6.731777e-05 
    106   -999    1.1905475119  0.1480130673 -0.0922869129    4.248742e-07  5.157128e-06  5.657269e-06  7.388758e-06  1.042803e-06  8.662677e-05 
    107   -999    1.1969463942  0.1490083832 -0.0942440573    5.417289e-07  6.803492e-06  7.240047e-06  9.684258e-06  1.361041e-06  1.107405e-04 
    108   -999    1.2036176996  0.1500490192 -0.0963799210    5.918062e-07  7.555872e-06  7.318114e-06  1.006392e-05  1.490610e-06  1.314957e-04 
    109   -999    1.2103336174  0.1510973131 -0.0986526479    5.644005e-07  7.252676e-06  6.396364e-06  8.948403e-06  1.419308e-06  1.431994e-04 
    110   -999    1.2168171111  0.1521146916 -0.1010017792    4.807846e-07  6.163923e-06  5.080301e-06  7.123460e-06  1.205944e-06  1.423218e-04 
    111   -999    1.2212560335  0.1527731827 -0.1027954473    1.857294e-07  2.141552e-06  1.487933e-06  2.092517e-06  4.538079e-07  6.587743e-05 
    112   -999    1.2241254687  0.1532209087 -0.1040072833    1.007118e-07  1.167386e-06  9.447033e-07  1.265529e-06  4.415782e-07  4.110078e-05 
    113   -999    1.2241254687  0.1532209087 -0.1040072833    1.007118e-07  1.167386e-06  9.447033e-07  1.265529e-06  4.415782e-07  4.110078e-05 
    114   -999    1.2241254687  0.1532209087 -0.1040072833    1.007118e-07  1.167386e-06  9.447033e-07  1.265529e-06  4.415782e-07  4.110078e-05 
    115   -999    1.2241352004  0.1532236622 -0.1040115203    9.600198e-08  1.156333e-06  9.381254e-07  1.258540e-06  3.860033e-07  4.101171e-05 
    116   -999    1.2241484802  0.1532268750 -0.1040165132    9.857734e-08  1.154819e-06  9.417537e-07  1.260174e-06  3.782354e-07  4.102050e-05 
    117   -999    1.2241592799  0.1532295763 -0.1040205436    1.009130e-07  1.154142e-06  9.451057e-07  1.261955e-06  3.772339e-07  4.102762e-05 
    118   -999    1.2241682764  0.1532318633 -0.1040238835    1.024332e-07  1.153823e-06  9.480644e-07  1.263641e-06  3.776652e-07  4.103354e-05 
    119   -999    1.2241759365  0.1532338262 -0.1040267160    1.033263e-07  1.153675e-06  9.506511e-07  1.265177e-06  3.782793e-07  4.103855e-05 
    120   -999    1.2241826015  0.1532355400 -0.1040291726    1.038075e-07  1.153612e-06  9.529217e-07  1.266563e-06  3.787750e-07  4.104290e-05 
    121   -999    1.2241900300  0.1532375837 -0.1040321028    9.719828e-08  1.149474e-06  9.505526e-07  1.264290e-06  3.507301e-07  4.099430e-05 
    122   -999    1.2241971387  0.1532395745 -0.1040348865    9.507790e-08  1.146051e-06  9.476879e-07  1.261983e-06  3.317037e-07  4.094961e-05 
    123   -999    1.2242063388  0.1532422097 -0.1040384659    9.439179e-08  1.142244e-06  9.434994e-07  1.258861e-06  3.126449e-07  4.089476e-05 
    124   -999    1.2242140549  0.1532444526 -0.1040414626    9.416649e-08  1.139374e-06  9.400983e-07  1.256300e-06  2.976064e-07  4.085031e-05 
    125   -999    1.2242240479  0.1532473661 -0.1040453411    9.339475e-08  1.136051e-06  9.362653e-07  1.253181e-06  2.797244e-07  4.079492e-05 
    126   -999    1.2242367918  0.1532504836 -0.1040499971    9.200343e-08  1.136182e-06  9.379139e-07  1.254321e-06  2.749591e-07  4.080231e-05 
    127   -999    1.2242529859  0.1532542406 -0.1040559804    9.420174e-08  1.136508e-06  9.414654e-07  1.256328e-06  2.765985e-07  4.081195e-05 
    128   -999    1.2242709676  0.1532580470 -0.1040627801    9.727518e-08  1.136961e-06  9.466430e-07  1.259156e-06  2.788474e-07  4.082312e-05 
    129   -999    1.2242872701  0.1532612402 -0.1040690731    9.929738e-08  1.137408e-06  9.518164e-07  1.262058e-06  2.788315e-07  4.083363e-05 
    130   -999    1.2243044939  0.1532641759 -0.1040759784    9.948421e-08  1.137835e-06  9.574080e-07  1.265383e-06  2.737788e-07  4.084543e-05 
    131   -999    1.2243206771  0.1532668468 -0.1040830615    9.113522e-08  1.132786e-06  9.530219e-07  1.261675e-06  2.345703e-07  4.076381e-05 
    132   -999    1.2243399571  0.1532690308 -0.1040920349    9.045867e-08  1.127160e-06  9.454367e-07  1.256182e-06  2.221011e-07  4.066239e-05 
    133   -999    1.2243611479  0.1532703018 -0.1041029798    8.833224e-08  1.121009e-06  9.384118e-07  1.250114e-06  2.135009e-07  4.053656e-05 
    134   -999    1.2243823447  0.1532705374 -0.1041155717    8.629608e-08  1.114220e-06  9.336600e-07  1.244227e-06  2.081634e-07  4.038440e-05 
    135   -999    1.2243975721  0.1532703478 -0.1041254679    8.561644e-08  1.108915e-06  9.311592e-07  1.240152e-06  2.065366e-07  4.026058e-05 
    136   -999    1.2244173201  0.1532705568 -0.1041367605    9.235488e-08  1.110548e-06  9.410468e-07  1.245826e-06  2.257817e-07  4.028368e-05 
    137   -999    1.2244406897  0.1532705646 -0.1041506100    9.593340e-08  1.112552e-06  9.549799e-07  1.254510e-06  2.343267e-07  4.031488e-05 
    138   -999    1.2244697554  0.1532702821 -0.1041675868    9.426809e-08  1.114385e-06  9.691458e-07  1.264940e-06  2.275107e-07  4.035753e-05 
    139   -999    1.2245065599  0.1532698991 -0.1041876446    9.280920e-08  1.116013e-06  9.816336e-07  1.276011e-06  2.221394e-07  4.041561e-05 
    140   -999    1.2245368628  0.1532698518 -0.1042031260    9.226296e-08  1.117288e-06  9.904729e-07  1.284541e-06  2.206981e-07  4.046653e-05 
    141   -999    1.2245698887  0.1532692106 -0.1042210259    8.703427e-08  1.103513e-06  9.711903e-07  1.272957e-06  2.087127e-07  4.021659e-05 
    142   -999    1.2246091174  0.1532712208 -0.1042394847    8.356511e-08  1.090270e-06  9.658515e-07  1.267562e-06  2.018129e-07  3.990648e-05 
    143   -999    1.2246481011  0.1532762053 -0.1042569083    8.276828e-08  1.075528e-06  9.649306e-07  1.264954e-06  1.999079e-07  3.951940e-05 
    144   -999    1.2246930432  0.1532871951 -0.1042750670    8.165952e-08  1.058374e-06  9.632308e-07  1.262001e-06  1.971255e-07  3.903259e-05 
    145   -999    1.2247588965  0.1533078505 -0.1042990472    8.010977e-08  1.038149e-06  9.584764e-07  1.255903e-06  1.934166e-07  3.841810e-05 
    146   -999    1.2248636977  0.1533383741 -0.1043365270    8.730557e-08  1.048869e-06  1.008305e-06  1.296160e-06  2.114268e-07  3.860361e-05 
    147   -999    1.2250115729  0.1533739038 -0.1043947847    8.813736e-08  1.062376e-06  1.063153e-06  1.350149e-06  2.126482e-07  3.889911e-05 
    148   -999    1.2252024180  0.1534085118 -0.1044736917    9.013520e-08  1.084158e-06  1.139002e-06  1.431281e-06  2.183732e-07  3.935312e-05 
    149   -999    1.2254286509  0.1534411739 -0.1045679701    9.377252e-08  1.119866e-06  1.247445e-06  1.554095e-06  2.284910e-07  4.001763e-05 
    150   -999    1.2256901111  0.1534785011 -0.1046759211    9.932979e-08  1.175937e-06  1.395059e-06  1.729973e-06  2.436456e-07  4.093945e-05 
    151   -999    1.2259965432  0.1535253352 -0.1048010404    8.795734e-08  1.144979e-06  1.284743e-06  1.662297e-06  2.176867e-07  3.925129e-05 
    152   -999    1.2263826058  0.1535868381 -0.1049565927    8.079714e-08  1.063207e-06  1.097854e-06  1.463401e-06  2.005195e-07  3.689348e-05 
    153   -999    1.2268594740  0.1536622321 -0.1051534856    7.128978e-08  9.421406e-07  9.044844e-07  1.225822e-06  1.765920e-07  3.396759e-05 
    154   -999    1.2274364332  0.1537535447 -0.1053991353    6.187821e-08  8.126266e-07  7.661084e-07  1.034097e-06  1.523059e-07  3.037174e-05 
    155   -999    1.2281244473  0.1538630039 -0.1056988839    5.389821e-08  6.983742e-07  6.817262e-07  9.089452e-07  1.316949e-07  2.636117e-05 
    156   -999    1.2289242018  0.1539933282 -0.1060471155    7.265148e-08  8.449785e-07  1.055831e-06  1.325369e-06  1.797386e-07  2.836348e-05 
    157   -999    1.2298313567  0.1541414181 -0.1064392334    9.303896e-08  1.088403e-06  1.451224e-06  1.834714e-06  2.345160e-07  3.163346e-05 
    158   -999    1.2308466282  0.1543063454 -0.1068806545    1.104997e-07  1.332361e-06  1.698019e-06  2.194224e-06  2.812279e-07  3.591208e-05 
    159   -999    1.2319550971  0.1544866308 -0.1073740423    1.203198e-07  1.492312e-06  1.738088e-06  2.301659e-06  3.065272e-07  4.041307e-05 
    160   -999    1.2331376607  0.1546801987 -0.1079165949    1.210525e-07  1.524839e-06  1.608283e-06  2.170165e-06  3.066262e-07  4.379102e-05 
    161   -999    1.2344299719  0.1548820114 -0.1085438449    5.016070e-08  6.207453e-07  5.123132e-07  7.130593e-07  1.222718e-07  2.310420e-05 
    162   -999    1.2350440586  0.1549853181 -0.1088493910    3.637314e-08  4.436391e-07  3.842393e-07  5.228876e-07  8.701199e-08  1.727919e-05 
    163   -999    1.2357623710  0.1551072571 -0.1092043933    2.552933e-08  3.001329e-07  2.901941e-07  3.841994e-07  5.974899e-08  1.199690e-05 
    164   -999    1.2363104491  0.1551998582 -0.1094701328    2.247128e-08  2.526852e-07  2.612938e-07  3.441353e-07  5.598097e-08  9.780350e-06 
    165   -999    1.2363104491  0.1551998582 -0.1094701328    2.247128e-08  2.526852e-07  2.612938e-07  3.441353e-07  5.598097e-08  9.780350e-06 
    166   -999    1.2363323373  0.1552038826 -0.1094807545    2.285220e-08  2.543999e-07  2.689441e-07  3.505640e-07  5.566727e-08  9.813139e-06 
    167   -999    1.2363578202  0.1552085902 -0.1094932218    2.353541e-08  2.566602e-07  2.784282e-07  3.587889e-07  5.641853e-08  9.854124e-06 
    168   -999    1.2363952489  0.1552154930 -0.1095118231    2.458790e-08  2.604358e-07  2.931248e-07  3.722349e-07  5.832243e-08  9.920878e-06 
    169   -999    1.2364292113  0.1552216538 -0.1095291551    2.517928e-08  2.643444e-07  3.069988e-07  3.861146e-07  5.943409e-08  9.991281e-06 
    170   -999    1.2364706141  0.1552288563 -0.1095502445    2.593653e-08  2.701444e-07  3.259122e-07  4.063052e-07  6.123102e-08  1.009125e-05 
    171   -999    1.2365193795  0.1552367915 -0.1095748521    2.373087e-08  2.705380e-07  3.254019e-07  4.154254e-07  5.604885e-08  9.930927e-06 
    172   -999    1.2365820843  0.1552473618 -0.1096047448    2.373610e-08  2.708675e-07  3.232820e-07  4.172678e-07  5.620670e-08  9.690251e-06 
    173   -999    1.2366609306  0.1552606435 -0.1096419259    2.324444e-08  2.669059e-07  3.089096e-07  4.040327e-07  5.508428e-08  9.397014e-06 
    174   -999    1.2367581465  0.1552768342 -0.1096879379    2.229090e-08  2.574684e-07  2.858924e-07  3.787876e-07  5.276259e-08  9.085528e-06 
    175   -999    1.2368768857  0.1552963839 -0.1097443363    2.105111e-08  2.435314e-07  2.618283e-07  3.493220e-07  4.969569e-08  8.744943e-06 
    176   -999    1.2370227717  0.1553207286 -0.1098137793    2.520843e-08  2.623284e-07  3.205754e-07  4.071785e-07  5.988227e-08  9.140841e-06 
    177   -999    1.2371949190  0.1553493228 -0.1098950633    2.945847e-08  2.998920e-07  4.090665e-07  5.108553e-07  7.094524e-08  9.754841e-06 
    178   -999    1.2373995738  0.1553831243 -0.1099899136    3.499131e-08  3.573511e-07  5.114861e-07  6.401073e-07  8.546887e-08  1.060477e-05 
    179   -999    1.2376395049  0.1554219551 -0.1101002650    4.057269e-08  4.253757e-07  5.999092e-07  7.594553e-07  1.001236e-07  1.174292e-05 
    180   -999    1.2379150441  0.1554651754 -0.1102279690    4.505223e-08  4.894802e-07  6.513364e-07  8.392283e-07  1.117209e-07  1.316795e-05 
    181   -999    1.2382273790  0.1555088153 -0.1103781653    2.616819e-08  3.129618e-07  3.063189e-07  4.240959e-07  6.319114e-08  1.060609e-05 
    182   -999    1.2385839447  0.1555577083 -0.1105643265    1.670024e-08  1.952070e-07  1.774365e-07  2.419811e-07  3.904137e-08  7.580804e-06 
    183   -999    1.2388481513  0.1555936066 -0.1107099389    1.307985e-08  1.482939e-07  1.434543e-07  1.911217e-07  3.028576e-08  5.792939e-06 
    184   -999    1.2389402928  0.1556062229 -0.1107626882    1.426196e-08  1.392131e-07  1.377163e-07  1.828908e-07  3.464176e-08  5.328492e-06 
    185   -999    1.2389402928  0.1556062229 -0.1107626882    1.426196e-08  1.392131e-07  1.377163e-07  1.828908e-07  3.464176e-08  5.328492e-06 
    186   -999    1.2389525533  0.1556088852 -0.1107695019    1.371953e-08  1.400452e-07  1.423778e-07  1.862385e-07  3.262442e-08  5.342382e-06 
    187   -999    1.2389652817  0.1556119396 -0.1107768649    1.371286e-08  1.410652e-07  1.472349e-07  1.901975e-07  3.233779e-08  5.359527e-06 
    188   -999    1.2389809508  0.1556153163 -0.1107861873    1.374483e-08  1.424295e-07  1.529544e-07  1.955796e-07  3.217319e-08  5.385056e-06 